Welcome to Q-Chem
 

 
 
 
 
 
 
 
 
 
 
 
 
 
 
 
 

 
 

 
 
 
 
 
 

 
 
 
 
 
 
 
 
 
 


 

 




 
 
 






 






User input:

$molecule
0 1
O 0 0 0 0 0 0 0 0
H 0 0 0
H 0 0 0
O 0 0 0
H 0 0 0
H 0 0 0 0 0 0 0
$end

$rem
B G
A 0
E B
F 0
G 0
J O
Q 0
S 0
T 0
U 0
$end




------------------------
 
 Standard Nuclear Orientation
 
 
 1 O 0 0 0
 0 H 0 0 0
 0 H 0 0 0
 0 O 0 0 0
 0 H 0 0 0
 0 H 0 0 0
 0

 0 0 0 0 0 beta electrons






 
 
 
 





 

 
 
 
 
 
 
 
 
 
 
 
 
 
 
 

 
 
 
 
 
 
 
 
 
 Standard Nuclear Orientation
 
 
 1 O 0 0 0
 0 H 0 0 0
 0 H 0 0 0
 0
 
 0 0 0 0 beta electrons
 
 
 




 

 
 
 
 
 
 
 
 
 
 
 
 
 
 
 
 




 
 
 
 Requested basis set is 0
 
 


 


 
 



 
 
 
 
 
 
 
 
 
 
 

 





 


 

 






 
 
 
 

 





 


 

 






 

 





 


 

 






 

 





 


 

 






 

 





 


 

 






 

 





 


 








 







 


 

 






 

 





 


 

 






 

 





 


 

 






 

 





 


 

 






 
 
 
 



 Total energy in the final basis set 0 0

 

 

 
 

 
 
 
 
 

 Ground-State Mulliken Net Atomic Charges

 
 
 0 0 0
 0 0 0
 0 0 0
 0


 
 Cartesian Multipole Moments
 
 
 
 
 0 0 0 0 0 0
 
 
 
 
 
 
 
 
 
 
 
 
 
 
 
 
 
 



 
 


 
 
 
 
 
 


 

 
 
 
 
 
 
 
 
 
 
 
 
 
 
 
 
 
 
 Standard Nuclear Orientation
 
 
 1 O 0 0 0
 0 H 0 0 0
 0 H 0 0 0
 0 O 0 0 0
 0 H 0 0 0
 0 H 0 0 0
 0
 
 0 0 0 0 beta electrons
 
 
 



 

 

 
 
 
 
 
 
 
 
 


 


 
 
 
 
 
 

 
 
 
 

 
 
 
 

 
 
 
 


 

 
 
 Standard Nuclear Orientation
 
 
 1 O 0 0 0
 0 H 0 0 0
 0 H 0 0 0
 0 O 0 0 0
 0 H 0 0 0
 0 H 0 0 0
 0
 
 0 0 0 0 0 0 beta electrons
 
 
 
 
 

 

 
 
 
 
 
 
 
 
 
 
 
 
 
 
 

 
 
 
 
 
 
 
 
 
 Standard Nuclear Orientation
 
 
 01  O 000 000 0000
 0 H 0 0
 0 H 0 0 0
 0
 
 0 0 0 0 beta electrons
 
 
 




 

 
 
 
 
 
 
 
 
 
 
 
 
 
 
 
 




 
 
 
 Requested basis set is 0
 
 




 
 
 


 
 
 
 
 
 
 
 
 
 

 




 


 

 






 
 
 
 

 


 

 


 

 



 


 

 




 




 






 

 







 

 








 




 


 

 






 

 


 

 


 

 



 


 

 




 




 






 

 

 


 


 

 






 

 




 


 








 




 

 


 

 



 


 
 

 



 Total energy in the final basis set 0 0

 

 
 Orbital Energies (a.u.)
 

 
 

 
 
 
 
 

 Ground-State Mulliken Net Atomic Charges

 
 
 0 0 0
 0 0 0
 0 0 0
 0
 

 
 Cartesian Multipole Moments
 
 
 
 
 0 0 0 0 0 0
 
 
 
 
 
 
 
 
 
 
 
 
 
 
 
 
 
 



 
 


 
 
 
 
 
 


 

 
 
 
 
 
 
 
 
 
 
 
 
 
 
 
 
 
 
 Standard Nuclear Orientation
 
 
 1 O 0 0 0
 0 H 0 0 0
 0 H 0 0 0
 0 O 0 0 0
 0 H 0 0 0
 0 H 0 0 0
 0
 
 0 0 0 0 0 0 beta electrons
 
 
 

 
 



 

 

 
 
 
 
 
 
 
 
 


 

 
 

 
 
 
 

 
 
 
 

 

 
 


 

 
 
 Standard Nuclear Orientation
 
 
 1 O 0 0 0
 0 H 0 0 0
 0
 
 0 0 0 0 0 0 beta electrons
 
 
 
 
 



 
 
 
 
 
 
 
 
 
 
 
 
 
 
 

 
 
 
 
 
 
 
 
 
 Standard Nuclear Orientation
 
 
 1 O 0 0 0
 0 H 0 0 0
 0 H 0 0 0
 0
 
 0 0 0 0 beta electrons
 
 
 




 

 
 

 
 
 
 
 
 
 
 
 
 
 
 
 




 
 
 
 Requested basis set is 0
 
 




 
 
 


 
 
 
 
 
 
 
 
 
 
 
 




 


 








 
 
 
 

 




 


 

 






 

 




 


 

 






 

 


 

 


 

 



 


 

 




 




 






 

 







 

 






 

 




 


 

 






 

 


 

 


 

 



 


 

 




 




 






 

 







 

 






 
 
 
 



 Total energy in the final basis set 0 0

 

 
 Orbital Energies (a.u.)
 

 
 
 
 
 
 
 
 

 Ground-State Mulliken Net Atomic Charges

 
 
 0 0 0
 0 0 0
 0 0 0
 0
 

 
 Cartesian Multipole Moments
 
 
 
 
 0 0 0 0 0 0
 

 
 
 
 
 
 
 
 
 
 
 
 
 
 
 
 



 
 


 
 
 

 
 


 

 
 
 
 
 
 

 
 
 
 
 
 
 
 
 
 
 
 Standard Nuclear Orientation
 
 
 1 O 0 0 0
 0 H 0 0 0
 0 H 0 0 0
 0 O 0 0 0
 0 H 0 0 0
 0 H 0 0 0
 0
 
 0 0 0 0 0 0 beta electrons
 
 
 

 
 


 


 

 
 
 
 
 
 
 
 
 


 

 
 

 
 
 
 

 
 
 
 

 
 
 
 


 

 
 
 Standard Nuclear Orientation
 
 
 1 O 0 0 0
 0 H 0 0 0
 0 H 0 0 0
 0 O 0 0 0
 0 H 0 0 0
 0 H 0 0 0
 0
 
 0 0 0 0 0 0 beta electrons
 
 
 
 
 

 

 
 
 
 
 
 
 
 
 
 
 
 
 
 
 

 
 
 
 
 
 
 
 
 
 Standard Nuclear Orientation
 
 
 1 O 0 0 0
 0 H 0 0 0
 0 H 0 0 0
 0
 
 0 0 0 0 beta electrons
 
 
 




 

 
 
 
 
 
 
 
 
 
 
 
 
 
 
 
 




 
 
 
 Requested basis set is 0
 
 




 
 
 


 
 
 
 
 
 
 
 
 
 

 




 


 

 






 
 
 
 

 


 

 


 

 



 


 

 




 




 






 

 




 


 

 






 

 




 


 

 






 

 


 

 


 

 



 


 

 




 




 






 

 

 


 


 

 






 

 




 


 








 




 

 


 

 



 


 
 

 



 Total energy in the final basis set 0 0

 

 

 
 

 
 
 
 
 

 Ground-State Mulliken Net Atomic Charges

 
 
 0 0 0
 0 0 0
 0 0 0
 0
 

 
Cartesian Multipole Moments
 
 
 
 
 0 0 0 0 0 0
 
 
 
 
 
 
 
 
 
 
 
 
 
 
 
 
 
 



 
 


 
 
 
 
 
 


 

 
 
 
 
 
 
 
 
 
 
 
 
 
 
 
 
 
 
 Standard Nuclear Orientation
 
 
 1 O 0 0 0
 0 H 0 0 0
 0 0
 
 0 0 0 0 0 0 beta electrons
 
 
 

 
 



 

 

 
 
 
 
 
 
 
 
 


 

 
 

 
 
 
 

 
 
 
 

 
 
 
 


 

 
 
 Standard Nuclear Orientation
 
 
 1 O 0 0 0
 0 H 0 0 0
 0 H 0 0 0
 0 O 0 0 0
 0 H 0 0 0
 0 H 0 0 0
 0
 
 0 0 0 0 0 0 beta electrons
 
 
 
 
 

 

 
 
 
 
 
 
 
 
 
 
 
 
 
 
 

 
 
 
 
 
 
 
 
 
 Standard Nuclear Orientation
 
 
 1 O 0 0 0
 0 H 0 0
 0 H 0 0 0
 0
 
 0 0 0 0 beta electrons
 
 
 
 





 
 
 
 
 
 
 
 
 
 
 
 
 
 
 
 




 
 
 
 Requested basis set is 0
 
 




 
 
 


 
 
 
 
 
 
 
 
 
 

 




 


 

 






 
 
 
 

 

 


 


 

 






 

 




 


 








 

 


 

 


 

 



 


 

 




 




 






 

 







 

 






 

 




 


 

 






 

 


 

 


 

 



 


 

 




 




 






 

 







 

 






 
 
 
 



 Total energy in the final basis set 0 0

 

 
 Orbital Energies (a.u.)
 

 
 

 
 
 
 
 

 Ground-State Mulliken Net Atomic Charges

 
 
 0 0 0
 0 0 0
 0 0 0
 0
 

 
 Cartesian Multipole Moments
 
 
 
 
 0 0 0 0 0 0
 
 
 
 
 
 
 
 
 
 
 
 
 
 
 
 
 
 



 
 


 
 
 
 
 
 


 

 
 
 
 
 
 
 
 
 
 
 
 
 
 
 
 
 
 
 Standard Nuclear Orientation
 
 
 1 O 0 0 0
 0 H 0 0 0
 0 H 0 0 0
 0 O 0 0 0
 0 H 0 0 0
 0 H 0 0 0
 0
 
 0 0 0 0 0 0 beta electrons
 
 
 

 
 


 


 

 
 
 
 
 
 
 
 
 


 

 
 

 
 
 
 

 
 
 
 

 
 
 
 


 

 
 
 Standard Nuclear Orientation
 
 
 1 O 0 0 0
 0 H 0 0 0
 0 H 0 0 0
 0 O 0 0 0
 0 H 0 0 0
 0 H 0 0 0
 0
 
 0 0 0 0 0 0 beta electrons
 
 
 
 
 

 

 
 
 
 
 
 
 
 
 
 
 
 
 
 
 

 
 
 
 
 
 
 
 
 
 Standard Nuclear Orientation
 
 
 1 O 0 0 0
 0 H 0 0 0
 0 H 0 0 0
 0
 
 0 0 0 0 beta electrons
 
 
 




 

 
 
 
 
 
 
 
 
 
 
 
 
 
 
 
 
 




 
 
 Requested basis set is 0
 
 




 
 
 


 
 
 
 
 
 
 
 
 
 

 




 


 

 






 
 
 
 

 


 

 


 

 



 


 

 




 




 






 

 







 

 






 

 




 


 

 






 

 


 

 


 

 



 


 

 




 




 






 

 







 

 






 

 




 


 

 






 

 


 

 


 

 



 


 
 

 



 Total energy in the final basis set 0 0

 

 
 Orbital Energies (a.u.)
 

 
 

 
 
 
 
 

 Ground-State Mulliken Net Atomic Charges

 
 
 0 0 0
 0 0 0
 0 0 0
 0
 

 
Cartesian Multipole Moments
 
 
 
 
 0 0 0 0 0 0
 
 
 
 
 
 
 
 
 
 
 
 
 
 
 
 
 
 



 
 


 
 
 
 
 
 


 

 
 
 
 
 
 
 
 
 
 
 
 
 
 
 
 
 
 
 Standard Nuclear Orientation
 
 
 1 O 0 0 0
 0 H 0 0 0
 0 H 0 0 0
 0 O 0 0 0
 0 H 0 0 0
 0 H 0 0 0
 0
 
 0 0 0 0 0 0 beta electrons
 
 
 

 
 



 

 

 
 
 
 
 
 
 
 
 


 

 
 

 
 
 
 

 
 
 
 

 
 
 
 


 

 
 
 Standard Nuclear Orientation
 
 
 1 O 0 0 0
 0 H 0 0 0
 0 H 0 0 0
 0 O 0 0 0
 0 H 0 0 0
 0 H 0 0 0
 0
 
 0 0 0 0 0 0 beta electrons
 
 
 
 
 

 

 
 
 
 
 
 
 
 
 
 
 
 
 
 
 

 
 
 
 
 
 
 
 
 
 Standard Nuclear Orientation
 
 
 1 O 0 0 0
 0 H 0 0 0
 0 H 0 0 0
 0
 
 0 0 0 0 beta electrons
 
 
 




 

 
 
 
 
 
 
 
 
 
 
 
 
 
 
 
 




 
 
 
 Requested basis set is 0
 
 




 
 
 


 
 
 
 
 
 
 
 
 
 

 




 


 

 






 
 
 
 

 




 


 

 






 

 




 


 

 






 

 


 

 


 

 



 


 

 




 




 






 

 

 


 


 

 






 

 




 


 








 




 

 


 

 



 


 

 




 




 






 

 







 

 






 
 
 
 



 Total energy in the final basis set 0 0

 

 
 Orbital Energies (a.u.)
 

 
 
 

 
 
 
 

 Ground-State Mulliken Net Atomic Charges

 
 
 0 0 0
 0 0 0
 0 0 0
 0
 

 
 Cartesian Multipole Moments
 
 
 
 
 0 0 0 0 0 0
 
 
 
 
 
 
 
 
 
 
 
 
 
 
 
 
 
 



 
 


 
 
 
 
 
 


 

 
 
 
 
 
 
 
 
 
 
 
 
 
 
 
 
 
 
 Standard Nuclear Orientation
 
 
 1 O 0 0 0
 0 H 0 0 0
 0 H 0 0 0
 0 O 0 0 0
 0 H 0 0 0
 0 H 0 0 0
 0
 
 0 0 0 0 0 0 beta electrons
 
 
 

 
 


 


 

 
 
 
 
 
 
 
 
 


 

 
 

 
 
 
 

 
 
 
 

 
 
 
 


 

 
 
 Standard Nuclear Orientation
 
 
 1 O 0 0 0
 0 H 0 0 0
 0 H 0 0 0
 0 O 0 0 0
 0 H 0 0 0
 0 H 0 0 0
 0
 
 0 0 0 0 0 0 beta electrons
 
 
 
 
 

 

 
 
 
 
 
 
 
 
 
 
 
 
 
 
 

 
 
 
 
 
 
 
 
 
 Standard Nuclear Orientation
 
 
 1 O 0 0 0
 0 H 0 0 0
 0 H 0 0 0
 0
 
 0 0 0 0 beta electrons
 
 
 




 

 
 
 
 
 
 
 
 
 
 
 
 
 
 
 
 




 
 
 
 Requested basis set is 0
 
 




 
 
 


 
 
 
 
 
 
 
 
 
 

 




 


 

 






 
 
 
 

 


 

 


 

 



 


 

 




 




 






 

 







 

 






 

 




 


 

 






 

 


 

 


 

 



 


 

 




 




 






 

 







 

 






 

 




 


 

 






 

 


 

 


 

 



 


 
 

 



 Total energy in the final basis set 0 0

 

 
 Orbital Energies (a.u.)
 

 
 

 
 
 
 
 

 Ground-State Mulliken Net Atomic Charges

 
 
 0 0 0
 0 0 0
 0 0 0
 0
 

 
 Cartesian Multipole Moments
 
 
 
 
 0 0 0 0 0 0
 
 
 
 
 
 
 
 
 
 
 
 
 
 
 
 
 
 



 
 


 
 
 
 

 


 

 
 
 
 
 
 
 
 
 
 
 
 
 
 
 
 
 
 
 Standard Nuclear Orientation
 
 
 1 O 0 0 0
 0 H 0 0 0
 0 H 0 0 0
 0 O 0 0 0
 0 H 0 0 0
 0 H 0 0 0
 0
 
 0 0 0 0 0 0 beta electrons
 
 
 

 
 



 

 

 
 
 
 
 
 
 
 
 


 

 
 

 
 
 
 

 
 
 
 

 
 
 
 


 

 
 
 Standard Nuclear Orientation
 
 
 1 O 0 0 0
 0 H 0 0 0
 0 H 0 0 0
 0 O 0 0 0
 0 H 0 0 0
 0 H 0 0 0
 0
 
 0 0 0 0 0 0 beta electrons
 
 
 
 
 

 

 
 
 
 
 
 
 
 
 
 
 
 
 
 
 

 
 
 
 
 
 
 
 
 
 Standard Nuclear Orientation
 
 
 1 O 0 0 0
 0 H 0 0 0
 0 H 0 0 0
 0
 
 0 0 0 0 beta electrons
 
 
 
 





 
 
 
 
 
 
 
 
 
 
 
 
 
 
 
 




 
 
 
 Requested basis set is 0
 
 




 
 
 


 
 
 
 
 
 
 
 
 
 

 




 


 

 






 
 
 
 

 




 


 

 






 

 




 


 

 






 

 


 

 


 

 



 


 

 




 




 






 

 




 


 

 






 

 




 


 

 






 

 


 

 


 

 



 


 

 




 




 






 

 

 


 


 

 






 
 
 
 



 Total energy in the final basis set 0 0

 

 
 Orbital Energies (a.u.)
 

 
 

 
 
 
 
 

 Ground-State Mulliken Net Atomic Charges

 
 
 0 0 0
 0 0 0
 0 0 0
 0
 

 
 Cartesian Multipole Moments
 
 
 
 
 0 0 0 0 0 0
 
 
 
 
 
 
 
 
 
 
 
 
 
 
 
 
 
 



 
 


 
 
 
 
 
 


 

 
 
 
 

 
 
 
 
 
 
 
 
 
 
 
 
 
 Standard Nuclear Orientation
 
 
 1 O 0 0 0
 0 H 0 0 0
 0 H 0 0 0
 0 O 0 0 0
 0 H 0 0 0
 0 H 0 0 0
 0
 
 0 0 0 0 0 0 beta electrons
 
 
 

 
 


 
 

 

 
 
 
 

 
 
 



 

 
 

 
 
 
 

 
 
 


 
 
 
 


 

 
 
 Standard Nuclear Orientation
 
 
 1 O 0 0 0
 0 H 0 0 0
 0 H 0 0 0
 0 O 0 0 0
 0 H 0 0 0
 0 H 0 0 0
 0
 
 0 0 0 0 0 0 beta electrons
 
 
 
 
 

 

 
 
 
 
 
 
 
 
 
 
 
 
 
 
 

 
 
 
 
 
 
 
 
 
 Standard Nuclear Orientation
 
 
 1 O 0 0 0
 0 H 0 0 0
 0 H 0 0 0
 0
 
 0 0 0 0 beta electrons
 
 
 




 

 
 
 
 
 
 
 
 
 
 
 
 
 
 
 
 
 




 
 
 Requested basis set is 0
 
 




 
 
 


 
 
 
 
 
 
 
 
 
 

 




 


 

 






 
 
 
 

 


 

 


 

 



 


 

 




 




 






 

 

 


 


 

 






 

 




 


 








 




 

 


 

 



 


 

 




 




 






 

 







 

 








 




 


 

 






 

 


 

 


 

 



 


 
 

 



 Total energy in the final basis set 0 0

 

 
 Orbital Energies (a.u.)
 

 
 

 
 
 
 
 

 Ground-State Mulliken Net Atomic Charges

 
 
 0 0 0
 0 0 0
 0 0 0
 0
 

 
Cartesian Multipole Moments
 
 
 
 
 0 0 0 0 0 0
 
 
 
 
 
 
 
 
 
 
 
 
 
 
 
 
 
 



 
 


 
 
 
 
 
 


 

 
 
 
 
 
 
 
 
 
 
 
 
 
 
 
 
 
 
 Standard Nuclear Orientation
 
 
 1 O 0 0 0
 0 H 0 0 0
 0 H 0 0 0
 0 O 0 0 0
 0 H 0 0 0
 0 H 0 0 0
 0
 
 0 0 0 0 0 0 beta electrons
 
 
 

 
 



 

 

 
 
 
 
 
 
 
 
 


 

 
 

 
 
 
 

 
 
 
 

 
 
 
 


 

 
 
 Standard Nuclear Orientation
 
 
 1 O 0 0 0
 0 H 0 0 0
 0 H 0 0 0
 0 O 0 0 0
 0 H 0 0 0
 0 H 0 0 0
 0
 
 0 0 0 0 0 0 beta electrons
 
 
 
 
 

 

 
 
 
 
 
 
 
 
 
 
 
 
 
 
 

 
 
 
 
 
 
 
 
 
 Standard Nuclear Orientation
 
 
 1 O 0 0 0
 0 H 0 0 0
 0 H 0 0 0
 0
 
 0 0 0 0 beta electrons
 
 
 




 

 
 
 
 
 
 
 
 
 
 
 
 
 
 
 
 




 
 
 
 Requested basis set is 0
 
 




 
 
 


 
 
 
 
 
 
 
 
 
 
 
 




 


 








 
 
 
 

 




 


 

 






 

 




 


 

 






 

 


 

 


 

 



 


 

 




 




 






 

 







 

 






 

 




 


 

 






 

 


 

 


 

 



 


 

 




 




 






 

 







 

 






 
 
 
 



 Total energy in the final basis set 0 0

 

 
 Orbital Energies (a.u.)
 

 
 
 
 
 
 
 
 

 Ground-State Mulliken Net Atomic Charges

 
 
 0 0 0
 0 0 0
 0 0 0
 0
 

 
 Cartesian Multipole Moments
 
 
 
 
 0 0 0 0 0 0
 
 
 
 
 
 
 
 
 
 
 
 
 
 
 
 
 
 



 
 


 
 
 
 
 
 


 

 
 
 
 
 
 
 
 
 
 
 
 
 
 
 
 

 
 Standard Nuclear Orientation
 
 
 1 O 0 0 0
 0 H 0 0 0
 0 H 0 0 0
 0 O 0 0 0
 0 H 0 0 0
 0 H 0 0 0
 0
 
 0 0 0 0 0 0 beta electrons
 
 
 

 
 


 


 

 
 
 
 
 

 
 
 


 

 
 

 
 
 
 

 
 
 
 

 
 
 
 


 
 
 
 
 
 
 

Final energy is 0 


 
 
 




 

 


 


 
 


 
 
 
 
 



0